/*--------------------------------*- C++ -*----------------------------------*\
| =========                 |                                                 |
| \\      /  F ield         | OpenFOAM: The Open Source CFD Toolbox           |
|  \\    /   O peration     | Version:  v2006                                 |
|   \\  /    A nd           | Website:  www.openfoam.com                      |
|    \\/     M anipulation  |                                                 |
\*---------------------------------------------------------------------------*/
FoamFile
{
    version     2.0;
    format      ascii;
    class       pointScalarField;
    location    "0";
    object      motionScale;
}
// * * * * * * * * * * * * * * * * * * * * * * * * * * * * * * * * * * * * * //

dimensions      [0 0 0 0 0 0 0];


internalField   nonuniform List<scalar> 
386220
(
0
0
0
0
0
0
0
0
0
0
0
0
0
0
0
0
0
0
0
0
0
0
0
0
0
0
0
0
0
0
0
0
0
0
0
0
0
0
0
0
0
0
0
0
0
0
0
0
0
0
0
0
0
0
0
0
0
0
0
0
0
0
0
0
0
0
0
0
0
0
0
0
0
0
0
0
0
0
0
0
0
0
0
0
0
0
0
0
0
0
0
0
0
0
0
0
0
0
0
0
0
0
0
0
0
0
0
0
0
0
0
0
0
0
0
0
0
0
0
0
0
0
0
0
0
0
0
0
0
0
0
0
0
0
0
0
0
0
0
0
0
0
0
0
0
0
0
0
0
0
0
0
0
0
0
0
0
0
0
0
0
0
0
0
0
0
0
0
0
0
0
0
0
0
0
0
0
0
0
0
0
0
0
0
0
0
0
0
0
0
0
0
0
0
0
0
0
0
0
0
0
0
0
0
0
0
0
0
0
0
0
0
0
0
0
0
0
0
0
0
0
0
0
0
0
0
0
0
0
0
0
0
0
0
0
0
0
0
0
0
0
0
0
0
0
0
0
0
0
0
0
0
0
0
0
0
0
0
0
0
0
0
0
0
0
0
0
0
0
0
0
0
0
0
0
0
0
0
0
0
0
0
0
0
0
0
0
0
0
0
0
0
0
0
0
0
0
0
0
0
0
0
0
0
0
0
0
0
0
0
0
0
0
0
0
0
0
0
0
0
0
0
0
0
0
0
0
0
0
0
0
0
0
0
0
0
0
0
0
0
0
0
0
0
0
0
0
0
0
0
0
0
0
0
0
0
0
0
0
0
1
1
1
1
1
1
1
1
1
1
1
1
1
1
1
1
1
1
1
1
1
1
1
1
1
1
1
1
1
1
1
1
1
1
1
1
1
1
1
1
1
1
1
1
1
1
1
1
1
1
1
1
1
1
1
1
1
1
1
1
1
1
1
1
1
1
1
1
1
1
1
1
1
1
1
1
1
1
1
1
1
1
1
0.99997047
0.99997084
0.99997047
0.99976671
0.99976832
0.99976671
0.99935093
0.99935457
0.99935093
0.99869994
0.9987065
0.99869994
0.9977887
0.99779915
0.9977887
0.99659011
0.99660554
0.99659011
0.99507499
0.99509658
0.99507499
0.99321187
0.99324091
0.99321187
0.99096694
0.99100485
0.99096694
0.98830389
0.9883522
0.98830389
0.9851838
0.98524419
0.9851838
0.98156505
0.98163934
0.98156505
0.97740323
0.97749338
0.97740323
0.97265103
0.97275916
0.97265103
0.96725822
0.96738661
0.96725822
0.96117158
0.96132267
0.96117158
0.95433491
0.9545113
0.95433491
0.94668906
0.94689353
0.94668906
0.93817201
0.93840751
0.93817201
0.92925419
0.92846854
0.92802564
0.92887437
0.91975366
1
0.99997017
0.99976545
0.99934807
0.99869479
0.99778048
0.99657799
0.99505803
0.99318906
0.99093717
0.98826595
0.98513637
0.9815067
0.97733243
0.97256611
0.9671574
0.96105294
0.9541964
0.9465285
0.93798709
0.92778662
1
0.99996996
0.99976454
0.99934601
0.99869108
0.99777457
0.99656926
0.99504582
0.99317265
0.99091575
0.98823864
0.98510224
0.98146473
0.97728149
0.97250502
0.96708486
0.96096758
0.95409675
0.94641299
0.93785405
0.927212
1
0.99996983
0.99976399
0.99934477
0.99868884
0.997771
0.996564
0.99503847
0.99316275
0.99090283
0.98822218
0.98508166
0.98143942
0.97725078
0.97246819
0.96704113
0.96091612
0.95403667
0.94634335
0.93777385
0.92674762
1
0.99996979
0.99976381
0.99934435
0.99868809
0.99776981
0.99656224
0.99503601
0.99315944
0.99089852
0.98821668
0.98507479
0.98143096
0.97724051
0.97245588
0.96702652
0.96089892
0.9540166
0.94632008
0.93774705
0.9263958
1
0.99996983
0.99976399
0.99934477
0.99868884
0.997771
0.996564
0.99503847
0.99316275
0.99090283
0.98822218
0.98508166
0.98143941
0.97725077
0.97246818
0.96704113
0.96091611
0.95403666
0.94634334
0.93777384
0.9261582
1
0.99996996
0.99976454
0.99934601
0.99869108
0.99777456
0.99656926
0.99504582
0.99317265
0.99091575
0.98823864
0.98510223
0.98146472
0.97728148
0.97250501
0.96708485
0.96096757
0.95409673
0.94641297
0.93785403
0.92603584
1
0.99997017
0.99976545
0.99934807
0.99869479
0.99778048
0.99657798
0.99505803
0.99318906
0.99093717
0.98826594
0.98513636
0.98150669
0.97733241
0.9725661
0.96715738
0.96105292
0.95419638
0.94652847
0.93798705
0.92602909
1
0.99997047
0.99976671
0.99935093
0.99869994
0.99778869
0.99659011
0.99507498
0.99321187
0.99096694
0.98830388
0.98518379
0.98156504
0.97740321
0.97265101
0.9672582
0.96117156
0.95433488
0.94668902
0.93817197
0.92613766
1
0.99997084
0.99976832
0.99935457
0.9987065
0.99779915
0.99660554
0.99509657
0.99324091
0.99100484
0.98835219
0.98524418
0.98163932
0.97749336
0.97275914
0.96738658
0.96132264
0.95451127
0.94689349
0.93840746
0.92636064
1
0.99997047
0.99976671
0.99935093
0.99869994
0.99778869
0.99659011
0.99507498
0.99321187
0.99096694
0.98830388
0.98518379
0.98156504
0.97740321
0.97265101
0.9672582
0.96117156
0.95433488
0.94668902
0.93817197
0.92613766
1
1
1
0.99997047
0.99997084
0.99997047
0.99976671
0.99976832
0.99976671
0.99935093
0.99935457
0.99935093
0.99869994
0.9987065
0.99869994
0.99778869
0.99779915
0.99778869
0.99659011
0.99660554
0.99659011
0.99507498
0.99509657
0.99507498
0.99321187
0.99324091
0.99321187
0.99096694
0.99100484
0.99096694
0.98830388
0.98835219
0.98830388
0.98518379
0.98524418
0.98518379
0.98156504
0.98163932
0.98156504
0.97740321
0.97749336
0.97740321
0.97265101
0.97275914
0.97265101
0.9672582
0.96738658
0.9672582
0.96117156
0.96132264
0.96117156
0.95433488
0.95451127
0.95433488
0.94668902
0.94689349
0.94668902
0.93817197
0.93840746
0.93817197
0.9256282
0.92540705
0.92540705
1
0.99997017
0.99976545
0.99934807
0.99869479
0.99778048
0.99657798
0.99505803
0.99318906
0.99093717
0.98826594
0.98513636
0.98150669
0.97733241
0.9725661
0.96715738
0.96105292
0.95419638
0.94652847
0.93798705
0.92530854
1
0.99996996
0.99976454
0.99934601
0.99869108
0.99777456
0.99656926
0.99504582
0.99317265
0.99091575
0.98823864
0.98510223
0.98146472
0.97728148
0.97250501
0.96708485
0.96096757
0.95409673
0.94641297
0.93785403
0.92533346
1
0.99996983
0.99976399
0.99934477
0.99868884
0.997771
0.996564
0.99503847
0.99316275
0.99090283
0.98822218
0.98508166
0.98143941
0.97725077
0.97246818
0.96704113
0.96091611
0.95403666
0.94634334
0.93777384
0.92548186
1
0.99996979
0.99976381
0.99934435
0.99868809
0.99776981
0.99656224
0.99503601
0.99315944
0.99089852
0.98821668
0.98507479
0.98143096
0.97724051
0.97245588
0.96702652
0.96089892
0.9540166
0.94632008
0.93774705
0.92575305
1
0.99996983
0.99976399
0.99934477
0.99868884
0.997771
0.996564
0.99503847
0.99316275
0.99090283
0.98822218
0.98508166
0.98143942
0.97725078
0.97246819
0.96704113
0.96091612
0.95403667
0.94634335
0.93777385
0.92614557
1
0.99996996
0.99976454
0.99934601
0.99869108
0.99777457
0.99656926
0.99504582
0.99317265
0.99091575
0.98823864
0.98510224
0.98146473
0.97728149
0.97250502
0.96708486
0.96096758
0.95409675
0.94641299
0.93785405
0.92665725
1
0.99997017
0.99976545
0.99934807
0.99869479
0.99778048
0.99657799
0.99505803
0.99318906
0.99093717
0.98826595
0.98513637
0.9815067
0.97733243
0.97256611
0.9671574
0.96105294
0.9541964
0.9465285
0.93798709
0.92728515
0.91100562
0.91121216
0.91100562
0.89486091
0.8950527
0.89486091
0.87686746
0.87704447
0.87686746
0.85692299
0.85708531
0.85692299
0.83493065
0.83507849
0.83493065
0.8108018
0.81093546
0.8108018
0.78445914
0.78457905
0.78445914
0.75584054
0.75594725
0.75584054
0.72490337
0.72499754
0.72490337
0.69162947
0.69171186
0.69162947
0.65603082
0.6561023
0.65603082
0.61815585
0.61821739
0.61815585
0.57809648
0.57814913
0.57809648
0.53599571
0.5360406
0.53599571
0.49205586
0.49209414
0.49205586
0.44654715
0.44658002
0.44654715
0.39981658
0.39984517
0.39981658
0.35229663
0.35232207
0.35229663
0.30451367
0.30453694
0.30451367
0.25709523
0.25711718
0.25709523
0.21077582
0.21079707
0.21077582
0.16640019
0.16642109
0.16640019
0.1249233
0.12494387
0.1249233
0.087405682
0.087425536
0.087405682
0.055002897
0.055021214
0.055002897
0.028947643
0.028963118
0.028947643
0.010522878
0.010533709
0.010522878
0.0010243443
0.0010282444
0.0010243443
0
0
0
0
0
0
0
0
0
0
0
0
0
0
0
0
0
0
0
0
0
0
0
0
0
0
0
0
0
0
0
0
0
0
0
0
0
0
0
0
0
0
0
0
0
0
0
0
0
0
0
0
0
0
0
0
0
0
0
0
0.91099365
0.894935
0.87702644
0.857165
0.8352531
0.81120133
0.78493158
0.75638088
0.72550574
0.6922871
0.65673606
0.61890018
0.57887054
0.53678935
0.49285825
0.44734691
0.40060192
0.35305558
0.30523433
0.25776609
0.21138606
0.16694013
0.12538481
0.087782623
0.05529159
0.029147311
0.010636037
0.0010571042
0
0
0
0
0
0
0
0
0
0
0
0
0
0
0
0
0
0
0
0
0.91117656
0.89527479
0.8775208
0.85781034
0.83604448
0.81213237
0.78599443
0.75756612
0.72680231
0.6936823
0.65821552
0.62044788
0.58046884
0.53841915
0.4944991
0.44897725
0.40219938
0.35459738
0.30669768
0.25912881
0.21262719
0.16804066
0.12632848
0.088556765
0.055888016
0.029563143
0.010874472
0.0011280392
0
0
0
0
0
0
0
0
0
0
0
0
0
0
0
0
0
0
0
0
0.91155355
0.89587869
0.8783482
0.85885598
0.83730116
0.8135908
0.78764315
0.75939137
0.72878798
0.69580984
0.66046393
0.62279372
0.58288633
0.54088029
0.49697392
0.45143411
0.4046054
0.35691899
0.30890131
0.26118163
0.21449811
0.16970137
0.12775459
0.089729078
0.056793787
0.030197339
0.011240918
0.0012403426
0
0
0
0
0
0
0
0
0
0
0
0
0
0
0
0
0
0
0
0
0.91212269
0.89674364
0.87950454
0.8602969
0.83901728
0.81557005
0.78987058
0.76184904
0.73145483
0.69866162
0.66347316
0.6259297
0.58611525
0.54416542
0.50027587
0.45471129
0.40781452
0.36001582
0.31184151
0.26392184
0.21699715
0.17192162
0.12966354
0.091300959
0.058011263
0.031053161
0.011739441
0.0013987823
0
0
0
0
0
0
0
0
0
0
0
0
0
0
0
0
0
0
0
0
0.91288098
0.89786516
0.88098399
0.86212603
0.84118472
0.81806107
0.79266693
0.76492876
0.7347921
0.70222669
0.66723222
0.62984499
0.59014512
0.54826455
0.50439566
0.45880031
0.41181926
0.36388148
0.31551313
0.26734558
0.22012179
0.17470028
0.13205558
0.09327403
0.059543366
0.03213474
0.012375271
0.0016095455
0
0
0
0
0
0
0
0
0
0
0
0
0
0
0
0
0
0
0
0
0.91382432
0.89923734
0.88277898
0.86433432
0.84379309
0.82105235
0.79601976
0.76861737
0.73878615
0.70649109
0.67172713
0.63452578
0.59496251
0.55316489
0.50932131
0.46369026
0.41660989
0.36850761
0.31990931
0.27144759
0.22386846
0.1780355
0.13493061
0.095649879
0.061393326
0.033446843
0.013154579
0.0018800361
0
0
0
0
0
0
0
0
0
0
0
0
0
0
0
0
0
0
0
0
0.91494751
0.90085287
0.88488023
0.86691071
0.84682976
0.82626242
0.80194117
0.77521534
0.74601753
0.71430389
0.68006005
0.64330786
0.6041129
0.56259281
0.51503802
0.46936749
0.42217417
0.37388358
0.32502118
0.2762209
0.22823218
0.18192438
0.1382878
0.098429742
0.063564368
0.034994579
0.014084201
0.002218627
0
0
0
0
0
0
0
0
0
0
0
0
0
0
0
0
0
0
0
0
0.91624432
0.90270306
0.88727677
0.87114964
0.85192138
0.8304527
0.80663827
0.78038627
0.75162293
0.72029775
0.68638956
0.64991336
0.61092799
0.56954457
0.52593567
0.48034508
0.433098
0.3846113
0.33083752
0.28165648
0.23320623
0.18636258
0.14212524
0.10161413
0.066059362
0.036783061
0.015171326
0.0026343709
0
0
0
0
0
0
0
0
0
0
0
0
0
0
0
0
0
0
0
0
0.91770748
0.90477785
0.89106
0.87458397
0.85596566
0.8350842
0.81182792
0.78822383
0.76027377
0.72970062
0.69647146
0.66058905
0.62209962
0.58110156
0.5377548
0.49229098
0.44502395
0.39198491
0.34244898
0.2927192
0.24354649
0.19134392
0.14643952
0.10520242
0.068880418
0.03881702
0.01642314
0.0031366758
0
0
0
0
0
0
0
0
0
0
0
0
0
0
0
0
0
0
0
0
0.90863177
0.8957609
0.8810128
0.86426043
0.84538027
0.82612187
0.80301329
0.7774525
0.74935972
0.71867812
0.68537998
0.64947359
0.61101104
0.57009683
0.52689722
0.48165025
0.43467612
0.38638779
0.33730125
0.28804499
0.23480396
0.18786281
0.14347007
0.10275556
0.06696221
0.03742782
0.015556732
0.0027794476
0
0
0
0
0
0
0
0
0
0
0
0
0
0
0
0
0
0
0
0
0.90877004
0.91822444
0.91687926
0.89770825
0.88491316
0.87025809
0.85361752
0.83486936
0.81389776
0.79059642
0.76711593
0.73925366
0.70883024
0.67581915
0.64022977
0.60211516
0.56158059
0.51879282
0.47399012
0.42749253
0.37971241
0.33116464
0.2779532
0.23004622
0.18370285
0.13992584
0.099840139
0.064682775
0.035784662
0.014542223
0.0023770375
0
0
0
0
0
0
0
0
0
0
0
0
0
0
0
0
0
0
0
0
0.89564712
0.90503921
0.90313068
0.88466358
0.87196468
0.85742566
0.84092285
0.82233596
0.8015509
0.77846305
0.75298122
0.72503218
0.69456601
0.66156216
0.62603632
0.59156868
0.55148689
0.50919012
0.46074842
0.4146976
0.36746101
0.31955929
0.271624
0.22440511
0.17877594
0.13573448
0.096399764
0.062001805
0.033863252
0.013371044
0.00193608
0
0
0
0
0
0
0
0
0
0
0
0
0
0
0
0
0
0
0
0
0.88008136
0.8905092
0.88692342
0.86919749
0.85661892
0.84222314
0.82588869
0.80749745
0.78693746
0.76410619
0.73891445
0.711291
0.68118775
0.64858586
0.61350259
0.57599892
0.53618796
0.49424416
0.45041296
0.40502094
0.35848596
0.31132706
0.26417333
0.21777133
0.17298988
0.13082126
0.092377527
0.058880285
0.031642359
0.012039401
0.0014695985
0
0
0
0
0
0
0
0
0
0
0
0
0
0
0
0
0
0
0
0
0.86174359
0.8724658
0.86927788
0.85098429
0.83855423
0.82433347
0.80820309
0.79004756
0.76975745
0.74723272
0.72238664
0.69515029
0.66547782
0.63335248
0.59879339
0.56186313
0.52267608
0.48140753
0.43830324
0.3936895
0.34798314
0.30170128
0.25547011
0.21003214
0.16625085
0.12511177
0.087718654
0.055283184
0.029106539
0.010551005
0.00099972445
0
0
0
0
0
0
0
0
0
0
0
0
0
0
0
0
0
0
0
0
0.84185124
0.8512877
0.8475327
0.82967616
0.81742716
0.80341816
0.7875332
0.76965972
0.74969125
0.72753069
0.7030942
0.67631565
0.64715185
0.61558853
0.58164702
0.54539181
0.5069388
0.46646428
0.42421441
0.38051512
0.33578203
0.29053
0.24538181
0.20107517
0.15846726
0.11853566
0.082374334
0.051183257
0.026249889
0.0089207689
0.00056132123
0
0
0
0
0
0
0
0
0
0
0
0
0
0
0
0
0
0
0
0
0.81732248
0.82659977
0.82230937
0.80490901
0.79287826
0.77912315
0.76353106
0.7459928
0.72640533
0.70467499
0.68072127
0.65448134
0.62591512
0.59501126
0.56179371
0.52632922
0.48873545
0.44918988
0.40793913
0.36530874
0.32171287
0.27766374
0.23378009
0.19079402
0.14955531
0.11103217
0.076307102
0.046566317
0.023081187
0.0071797815
0.00020675602
0
0
0
0
0
0
0
0
0
0
0
0
0
0
0
0
0
0
0
0
0.78893294
0.79999053
0.79323766
0.77631173
0.7645414
0.75108804
0.73584279
0.71870029
0.69956142
0.67833644
0.65494873
0.62933924
0.60147153
0.57133762
0.53896454
0.50442164
0.46782867
0.42936446
0.38927619
0.34788889
0.30561503
0.26296372
0.22054897
0.17909629
0.1394468
0.10255776
0.069498232
0.041438373
0.019630743
0.0053818514
1.2108481e-05
0
0
0
0
0
0
0
0
0
0
0
0
0
0
0
0
0
0
0
0
0.7563075
0.76754017
0.75995383
0.74601774
0.73205748
0.7189598
0.70412228
0.68744391
0.66882999
0.64819525
0.62546752
0.60059208
0.57353667
0.5442972
0.51290421
0.4794301
0.44399698
0.40678527
0.36804271
0.32809375
0.28734885
0.2463135
0.20559613
0.16591456
0.12809981
0.09309637
0.061957659
0.03583512
0.015959434
0.00361203
0
0
0
0
0
0
0
0
0
0
0
0
0
0
0
0
0
0
0
0
0
0.71909547
0.73045653
0.72211988
0.70912179
0.69509403
0.68241227
0.66805059
0.65191288
0.63390943
0.61396002
0.59199751
0.56797212
0.54185633
0.51365049
0.48338917
0.45114817
0.41705234
0.38128384
0.34409106
0.3057977
0.26681184
0.22763467
0.18886817
0.15122118
0.11551296
0.082673169
0.053737047
0.029834341
0.01217037
0.0019975183
0
0
0
0
0
0
0
0
0
0
0
0
0
0
0
0
0
0
0
0
0
0.67699746
0.68842683
0.67944995
0.66739223
0.65337213
0.64117296
0.6273626
0.61185043
0.59455235
0.57539381
0.55431333
0.53126671
0.50623176
0.47921385
0.45025207
0.41942612
0.38686382
0.35274932
0.31733163
0.28093349
0.24396018
0.20690784
0.17037092
0.1350478
0.10174411
0.071372325
0.044946659
0.023571783
0.0084237349
0.0007213936
0
0
0
0
0
0
0
0
0
0
0
0
0
0
0
0
0
0
0
0
0
0.62980131
0.64122341
0.63174581
0.62062189
0.60670237
0.59505884
0.5818826
0.56708913
0.55060063
0.53234887
0.51227873
0.49035221
0.46655314
0.44089248
0.41341436
0.38420278
0.3533889
0.32115896
0.28776257
0.25352127
0.21883692
0.1841998
0.15019553
0.11751039
0.08693423
0.059359663
0.035776686
0.017261094
0.0049552469
3.9538477e-05
0
0
0
0
0
0
0
0
0
0
0
0
0
0
0
0
0
0
0
0
0
0.57742913
0.58875069
0.5789429
0.56873763
0.55875841
0.54402294
0.53157054
0.5175968
0.50203091
0.4848117
0.46589111
0.44523806
0.422843
0.39872311
0.37292809
0.34554666
0.3167136
0.28661735
0.25550801
0.22370552
0.19160772
0.15969792
0.1285515
0.098840747
0.071337258
0.046910822
0.026523598
0.011218262
0.0020986118
0
0
0
0
0
0
0
0
0
0
0
0
0
0
0
0
0
0
0
0
0
0
0.51999704
0.53110501
0.52116884
0.51185983
0.50252072
0.48821322
0.47658056
0.46353456
0.44901214
0.43295998
0.41533779
0.39612213
0.37531076
0.35292765
0.32902861
0.30370745
0.2771028
0.24940534
0.22086547
0.19180106
0.16260506
0.13375265
0.10580726
0.079424987
0.055356479
0.034445311
0.017621784
0.0058907473
0.0003120194
0
0
0
0
0
0
0
0
0
0
0
0
0
0
0
0
0
0
0
0
0
0
0.45788901
0.46864875
0.45881553
0.45037585
0.43752643
0.42804515
0.41733295
0.40532815
0.39197618
0.37723234
0.36106488
0.3434587
0.32441954
0.30397877
0.28219873
0.25917869
0.23506126
0.21003936
0.18436333
0.15834834
0.13238146
0.10692828
0.082538376
0.05984919
0.0395873
0.022566329
0.0096802607
0.0018909225
0
0
0
0
0
0
0
0
0
0
0
0
0
0
0
0
0
0
0
0
0
0
0
0.39184494
0.39772603
0.39262506
0.38502764
0.37286988
0.36428794
0.35459969
0.34375263
0.33170154
0.31841109
0.30385882
0.28803868
0.270965
0.25267707
0.2332442
0.21277136
0.19140523
0.16934071
0.14682766
0.12417773
0.10177087
0.080061411
0.059582875
0.040951219
0.024865517
0.012105273
0.0035232514
3.2577826e-05
0
0
0
0
0
0
0
0
0
0
0
0
0
0
0
0
0
0
0
0
0
0
0
0.32306167
0.32828396
0.31923787
0.31242432
0.30575433
0.29816277
0.28960175
0.28002873
0.26940859
0.25771612
0.24493885
0.23108043
0.21616432
0.20023821
0.18337866
0.16569647
0.14734229
0.12851268
0.10945635
0.090480348
0.071956084
0.054324626
0.038100923
0.023876302
0.012318493
0.0041683154
0.00023196489
0
0
0
0
0
0
0
0
0
0
0
0
0
0
0
0
0
0
0
0
0
0
0
0
0.25330216
0.25780612
0.24971575
0.24369255
0.23796223
0.2314484
0.22411363
0.21592605
0.20686135
0.19690511
0.18605547
0.17432628
0.16175063
0.14838486
0.13431297
0.11965153
0.10455489
0.089220699
0.073895571
0.0588807
0.044537148
0.031290462
0.019634134
0.010131348
0.0034142721
0.00018007042
0
0
0
0
0
0
0
0
0
0
0
0
0
0
0
0
0
0
0
0
0
0
0
0
0
0.18077986
0.1843247
0.18186318
0.17666341
0.17194189
0.16658474
0.1605656
0.1538639
0.14646672
0.13837094
0.12958576
0.12013564
0.11006352
0.099434512
0.08834001
0.076902077
0.065278208
0.053666294
0.042309662
0.031502012
0.021591972
0.012986931
0.006155697
0.0016294251
0
0
0
0
0
0
0
0
0
0
0
0
0
0
0
0
0
0
0
0
0
0
0
0
0
0
0
0.11774589
0.12050347
0.11885346
0.11455037
0.11089432
0.10675844
0.10212792
0.096993896
0.091355198
0.08522034
0.07860984
0.071558861
0.064120203
0.056367626
0.048399516
0.040342854
0.032357421
0.024640161
0.017429556
0.011009828
0.0057147012
0.0019304031
9.746028e-05
0
0
0
0
0
0
0
0
0
0
0
0
0
0
0
0
0
0
0
0
0
0
0
0
0
0
0
0
0.063611494
0.065553312
0.064651435
0.061369969
0.05881732
0.055945733
0.052752139
0.049239556
0.045418664
0.04130963
0.036944193
0.032368045
0.027643489
0.022852395
0.018099426
0.013515494
0.0092613989
0.0055315423
0.0025575894
0.00061188697
0
0
0
0
0
0
0
0
0
0
0
0
0
0
0
0
0
0
0
0
0
0
0
0
0
0
0
0
0
0
0
0.023185078
0.024301811
0.023983041
0.021908144
0.020470717
0.018876402
0.017133744
0.015257437
0.01326974
0.011202092
0.0090969663
0.0070099465
0.0050120486
0.0031922676
0.0016603329
0.00054963118
2.0232228e-05
0
0
0
0
0
0
0
0
0
0
0
0
0
0
0
0
0
0
0
0
0
0
0
0
0
0
0
0
0
0
0
0
0
0
0.0018898564
0.0021973321
0.002181384
0.0015586116
0.0012140068
0.00087058171
0.00054793009
0.00027177173
7.5184889e-05
0
0
0
0
0
0
0
0
0
0
0
0
0
0
0
0
0
0
0
0
0
0
0
0
0
0
0
0
0
0
0
0
0
0
0
0
0
0
0
0
0
0
0
0
0
0
0
0
0
0
0
0
0
0
0
0
0
0
0
0
0
0
0
0
0
0
0
0
0
0
0
0
0
0
0
0
0
0
0
0
0
0
0
0
0
0
0
0
0
0
0
0
0
0
0
0
0
0
0
0
0
0
0
0
0
0
0
0
0
0
0
0
0
0
0
0
0
0
0
0
0
0
0
0
0
0
0
0
0
0
0
0
0
0
0
0
0
0
0
0
0
0
0
0
0
0
0
0
0
0
0
0
0
0
0
0
0
0
0
0
0
0
0
0
0
0
0
0
0
0
0
0
0
0
0
0
0
0
0
0
0
0
0
0
0
0
0
0
0
0
0
0
0
0
0
0
0
0
0
0
0
0
0
0
0
0
0
0
0
0
0
0
0
0
0
0
0
0
0
0
0
0
0
0
0
0
0
0
0
0
0
0
0
0
0
0
0
0
0
0
0
0
0
0
0
0
0
0
0
0
0
0
0
0
0
0
0
0
0
0
0
0
0
0
0
0
0
0
0
0
0
0
0
0
0
0
0
0
0
0
0
0
0
0
0
0
0
0
0
0
0
0
0
0
0
0
0
0
0
0
0
0
0
0
0
0
0
0
0
0
0
0
0
0
0
0
0
0
0
0
0
0
0
0
0
0
0
0
0
0
0
0
0
0
0
0
0
0
0
0
0
0
0
0
0
0
0
0
0.9121805
0.91239062
0.9121805
0.91214953
0.91229823
0.91262624
0.91313229
0.91381417
0.91466878
0.91569211
0.89605168
0.89624873
0.89605168
0.89609871
0.89639001
0.89692459
0.89770028
0.89871378
0.89996063
0.90143518
0.87748168
0.87766563
0.87748168
0.87760616
0.87803889
0.8787783
0.87982143
0.88116393
0.88280009
0.88472275
0.85618239
0.85635337
0.85618239
0.85638257
0.85695342
0.85789285
0.85919716
0.86086108
0.86287775
0.86523866
0.8318508
0.83200916
0.8318508
0.83212361
0.8328268
0.83395782
0.83551234
0.83748428
0.83986577
0.84264714
0.80417518
0.80432149
0.80417518
0.804516
0.80534291
0.80665296
0.8084413
0.81070116
0.81342385
0.81843535
0.77284425
0.77297933
0.77284425
0.77324676
0.77418558
0.77565745
0.7776571
0.78017723
0.78320849
0.78891823
0.73756049
0.73768539
0.73756049
0.73801647
0.73905188
0.74066321
0.74284491
0.74558929
0.74888652
0.75524398
0.69805844
0.69817447
0.69805844
0.69855767
0.69967057
0.70139351
0.70372071
0.70664428
0.71015412
0.71708965
0.65412952
0.65423822
0.65412952
0.65465972
0.65582714
0.65762805
0.66005664
0.66310493
0.66676276
0.67418541
0.6056546
0.60575767
0.6056546
0.60620147
0.60739656
0.60923615
0.61171447
0.61482364
0.6185536
0.62634929
0.55264578
0.55274503
0.55264578
0.55319321
0.5543856
0.55621932
0.55868874
0.56178621
0.56550197
0.57353235
0.49529872
0.49539594
0.49529872
0.49582919
0.49698568
0.49876469
0.50116084
0.50416686
0.50777341
0.51196904
0.43405644
0.43415322
0.43405644
0.43455172
0.43563744
0.4373103
0.43956527
0.44239553
0.44579234
0.44974497
0.36968458
0.36978205
0.36968458
0.37012671
0.37110693
0.37262217
0.37466781
0.37723759
0.3803235
0.38391566
0.30335662
0.30345516
0.30335662
0.30372936
0.30457197
0.3058817
0.30765439
0.30988439
0.31256453
0.31568592
0.2367452
0.23684405
0.2367452
0.23703585
0.23771475
0.23877947
0.24022633
0.24205043
0.24424547
0.24680369
0.17211177
0.1722086
0.17211177
0.17231349
0.17281266
0.17360721
0.17469403
0.17606898
0.17772673
0.17966075
0.11238152
0.11247195
0.11238152
0.11249593
0.11281426
0.11333484
0.11405517
0.11497193
0.11608087
0.1173768
0.061183307
0.061260483
0.061183307
0.061223254
0.061379646
0.06165124
0.062036214
0.062532143
0.063135953
0.063843883
0.022825122
0.022879453
0.022825122
0.022817213
0.022855307
0.022938651
0.023066153
0.023236363
0.023447461
0.023697232
0.0021654473
0.0021846128
0.0021654473
0.0021516372
0.0021430477
0.0021394484
0.0021405127
0.0021458162
0.0021548335
0.002166935
0
0
0
0
0
0
0
0
0
0
0
0
0
0
0
0
0
0
0
0
0
0
0
0
0
0
0
0
0
0
0
0
0
0
0
0
0
0
0
0
0
0
0
0
0
0
0
0
0
0
0
0
0
0
0
0
0
0
0
0
0.93840751
0.93817201
0.94668906
0.94689353
0.94668906
0.93817201
0.92893516
0.92813191
0.92925419
0.91981422
0.92846854
0.95433491
0.9545113
0.95433491
0.96117158
0.96132267
0.96117158
0.96725822
0.96738661
0.96725822
0.97265103
0.97275916
0.97265103
0.97740323
0.97749338
0.97740323
0.98156505
0.98163934
0.98156505
0.9851838
0.98524419
0.9851838
0.98830389
0.9883522
0.98830389
0.99096694
0.99100485
0.99096694
0.99321187
0.99324091
0.99321187
0.99507499
0.99509658
0.99507499
0.99659011
0.99660554
0.99659011
0.9977887
0.99779915
0.9977887
0.99869994
0.9987065
0.99869994
0.99935093
0.99935457
0.99935093
0.99976671
0.99976832
0.99976671
0.99997047
0.99997084
0.99997047
1
1
1
0.9465285
0.93798709
0.92778662
0.9541964
0.96105294
0.9671574
0.97256611
0.97733243
0.9815067
0.98513637
0.98826595
0.99093717
0.99318906
0.99505803
0.99657799
0.99778048
0.99869479
0.99934807
0.99976545
0.99997017
1
0.94641299
0.93785405
0.927212
0.95409675
0.96096758
0.96708486
0.97250502
0.97728149
0.98146473
0.98510224
0.98823864
0.99091575
0.99317265
0.99504582
0.99656926
0.99777457
0.99869108
0.99934601
0.99976454
0.99996996
1
0.94634335
0.93777385
0.92674762
0.95403667
0.96091612
0.96704113
0.97246819
0.97725078
0.98143942
0.98508166
0.98822218
0.99090283
0.99316275
0.99503847
0.996564
0.997771
0.99868884
0.99934477
0.99976399
0.99996983
1
0.94632008
0.93774705
0.9263958
0.9540166
0.96089892
0.96702652
0.97245588
0.97724051
0.98143096
0.98507479
0.98821668
0.99089852
0.99315944
0.99503601
0.99656224
0.99776981
0.99868809
0.99934435
0.99976381
0.99996979
1
0.94634334
0.93777384
0.9261582
0.95403666
0.96091611
0.96704113
0.97246818
0.97725077
0.98143941
0.98508166
0.98822218
0.99090283
0.99316275
0.99503847
0.996564
0.997771
0.99868884
0.99934477
0.99976399
0.99996983
1
0.94641297
0.93785403
0.92603584
0.95409673
0.96096757
0.96708485
0.97250501
0.97728148
0.98146472
0.98510223
0.98823864
0.99091575
0.99317265
0.99504582
0.99656926
0.99777456
0.99869108
0.99934601
0.99976454
0.99996996
1
0.94652847
0.93798705
0.92602909
0.95419638
0.96105292
0.96715738
0.9725661
0.97733241
0.98150669
0.98513636
0.98826594
0.99093717
0.99318906
0.99505803
0.99657798
0.99778048
0.99869479
0.99934807
0.99976545
0.99997017
1
0.93840746
0.93817197
0.94668902
0.94689349
0.94668902
0.93817197
0.92572652
0.92594909
0.92572652
0.95433488
0.95451127
0.95433488
0.96117156
0.96132264
0.96117156
0.9672582
0.96738658
0.9672582
0.97265101
0.97275914
0.97265101
0.97740321
0.97749336
0.97740321
0.98156504
0.98163932
0.98156504
0.98518379
0.98524418
0.98518379
0.98830388
0.98835219
0.98830388
0.99096694
0.99100484
0.99096694
0.99321187
0.99324091
0.99321187
0.99507498
0.99509657
0.99507498
0.99659011
0.99660554
0.99659011
0.99778869
0.99779915
0.99778869
0.99869994
0.9987065
0.99869994
0.99935093
0.99935457
0.99935093
0.99976671
0.99976832
0.99976671
0.99997047
0.99997084
0.99997047
1
1
1
0.94652847
0.93798705
0.92562038
0.95419638
0.96105292
0.96715738
0.9725661
0.97733241
0.98150669
0.98513636
0.98826594
0.99093717
0.99318906
0.99505803
0.99657798
0.99778048
0.99869479
0.99934807
0.99976545
0.99997017
1
0.94641297
0.93785403
0.9256316
0.95409673
0.96096757
0.96708485
0.97250501
0.97728148
0.98146472
0.98510223
0.98823864
0.99091575
0.99317265
0.99504582
0.99656926
0.99777456
0.99869108
0.99934601
0.99976454
0.99996996
1
0.94634334
0.93777384
0.92576044
0.95403666
0.96091611
0.96704113
0.97246818
0.97725077
0.98143941
0.98508166
0.98822218
0.99090283
0.99316275
0.99503847
0.996564
0.997771
0.99868884
0.99934477
0.99976399
0.99996983
1
0.94632008
0.93774705
0.92600649
0.9540166
0.96089892
0.96702652
0.97245588
0.97724051
0.98143096
0.98507479
0.98821668
0.99089852
0.99315944
0.99503601
0.99656224
0.99776981
0.99868809
0.99934435
0.99976381
0.99996979
1
0.94634335
0.93777385
0.9263687
0.95403667
0.96091612
0.96704113
0.97246819
0.97725078
0.98143942
0.98508166
0.98822218
0.99090283
0.99316275
0.99503847
0.996564
0.997771
0.99868884
0.99934477
0.99976399
0.99996983
1
0.94641299
0.93785405
0.92684536
0.95409675
0.96096758
0.96708486
0.97250502
0.97728149
0.98146473
0.98510224
0.98823864
0.99091575
0.99317265
0.99504582
0.99656926
0.99777457
0.99869108
0.99934601
0.99976454
0.99996996
1
0.9465285
0.93798709
0.9274341
0.9541964
0.96105294
0.9671574
0.97256611
0.97733243
0.9815067
0.98513637
0.98826595
0.99093717
0.99318906
0.99505803
0.99657799
0.99778048
0.99869479
0.99934807
0.99976545
0.99997017
1
0
0
0
0
0
0
0
0
0
0
0
0
0
0
0
0
0
0
0.0012260761
0.0012407055
0.0012260761
0.019370681
0.019421556
0.019370681
0.055406463
0.055481286
0.055406463
0.10463186
0.10472091
0.10463186
0.16282533
0.16292154
0.16282533
0.22638695
0.22648569
0.22638695
0.29237784
0.29247652
0.29237784
0.35849441
0.35859206
0.35849441
0.42300545
0.42310229
0.42300545
0.48467181
0.48476885
0.48467181
0.54266183
0.54276059
0.54266183
0.59647054
0.59657279
0.59647054
0.64584708
0.64595464
0.64584708
0.69073216
0.6908468
0.69073216
0.73120609
0.7313294
0.73120609
0.7674466
0.76757997
0.7674466
0.79969562
0.79984018
0.79969562
0.82823357
0.82839023
0.82823357
0.85336004
0.85352945
0.85336004
0.87537961
0.87556219
0.87537961
0.89459169
0.89478765
0.89459169
0.91128369
0.91149304
0.91128369
0
0
0
0
0
0
0.001214732
0.01935959
0.055438416
0.10473481
0.1630137
0.22666389
0.29273784
0.35892581
0.42349271
0.48519737
0.54320754
0.59701874
0.64638134
0.69123772
0.73167013
0.76785831
0.80004619
0.82851609
0.85356936
0.87551214
0.89464527
0.91125736
0
0
0
0
0
0
0.0012065689
0.019387897
0.055576496
0.10502889
0.16348558
0.22731528
0.29355513
0.35988475
0.42456246
0.48634385
0.544396
0.59821568
0.64755574
0.69236189
0.73272004
0.76881378
0.8008908
0.82923695
0.85415685
0.87595956
0.8949485
0.91141455
0
0
0
0
0
0
0.0012014116
0.01945491
0.055819525
0.10551246
0.16423895
0.22833873
0.29482701
0.36136823
0.42621144
0.48810777
0.54622359
0.60005764
0.64936656
0.69410098
0.73435229
0.77030972
0.80222645
0.83039355
0.85512036
0.87672024
0.89550036
0.91175486
0
0
0
0
0
0
0.0011990146
0.019559625
0.056165771
0.10618314
0.1652708
0.22973067
0.29654939
0.3633717
0.42843469
0.49048383
0.54868474
0.60253887
0.65180797
0.69644922
0.73656127
0.77234079
0.80404823
0.83198148
0.85645614
0.87779115
0.89629862
0.91227695
0
0
0
0
0
0
0.0011990608
0.019700713
0.056612929
0.10703771
0.16657709
0.23148629
0.29871676
0.365889
0.43122546
0.49346482
0.55177184
0.60565151
0.65487202
0.69939869
0.73933925
0.77489963
0.80634928
0.83399455
0.85815879
0.87916785
0.89733989
0.91297857
0
0
0
0
0
0
0.0012011603
0.019876505
0.057158084
0.1080721
0.16815267
0.23359945
0.30132206
0.36891225
0.43457517
0.4970415
0.5554752
0.60938556
0.65854852
0.70293927
0.74267636
0.77797679
0.80912078
0.83642478
0.86022131
0.88084446
0.89861957
0.91385652
0
0
0
0
0
0
0.0012048481
0.020084974
0.057797669
0.10928128
0.16999118
0.23606258
0.30435659
0.37243173
0.43847319
0.50120254
0.56353119
0.61723428
0.66604651
0.70996679
0.74913665
0.78379453
0.81424004
0.83926233
0.86263507
0.88281371
0.90013192
0.91490669
0
0
0
0
0
0
0.0012095826
0.020323709
0.058527421
0.11065926
0.17208499
0.23886655
0.30780988
0.3810554
0.44749787
0.51039542
0.56893067
0.62264243
0.67134245
0.71504447
0.75390583
0.7881808
0.81818413
0.84426349
0.86677901
0.88506692
0.90187001
0.91612407
0
0
0
0
0
0
0.001214744
0.020589898
0.059342325
0.11219892
0.17442507
0.24678211
0.31671786
0.38606394
0.45728739
0.52033098
0.57877726
0.63219277
0.6804194
0.72350132
0.76162513
0.79507222
0.82255164
0.84809463
0.87003796
0.88875196
0.90382576
0.91750274
0
0
0
0
0
0
0.00099915536
0.019610116
0.057579681
0.10965872
0.17113118
0.2379904
0.31181205
0.38051949
0.44685691
0.50954901
0.56777892
0.62109213
0.66931104
0.71246228